LAMMPS Description

1142  atoms
1142  ellipsoids
40  bonds
39  angles


3  atom types
2  bond types
2  angle types


0 120 xlo xhi
0 120 ylo yhi
0 0.25 zlo zhi

Masses

1 1.0  # A
2 1.0  # B
3 1.0  # C

Atoms

1  1 49.833657 43.331604 -0.011930                          1          1   1
2  1 50.274736 44.229072 -0.011787                          1          1   1
3  1 50.715816 45.126540 -0.011644                          1          1   1
4  1 51.156896 46.024008 -0.011501                          1          1   1
5  1 51.597976 46.921475 -0.011358                          1          1   1
6  1 52.039056 47.818943 -0.011215                          1          1   1
7  1 52.480135 48.716411 -0.011071                          1          1   1
8  1 52.921215 49.613879 -0.010928                          1          1   1
9  1 53.362295 50.511347 -0.010785                          1          1   1
10  1 53.803375 51.408815 -0.010642                         1          1   1
11  1 54.244455 52.306283 -0.010499                         1          1   1
12  1 54.685535 53.203751 -0.010356                         1          1   1
13  1 55.126614 54.101218 -0.010212                         1          1   1
14  1 55.567694 54.998686 -0.010069                         1          1   1
15  1 56.008774 55.896154 -0.009926                         1          1   1
16  1 56.449854 56.793622 -0.009783                         1          1   1
17  1 56.890934 57.691090 -0.009640                         1          1   1
18  1 57.332013 58.588558 -0.009497                         1          1   1
19  1 57.773093 59.486026 -0.009353                         1          1   1
20  1 58.214173 60.383493 -0.009210                         1          1   1
21  1 58.655253 61.280961 -0.009067                         1          1   1
22  2 59.096333 62.178429 -0.008924                         2          1   1
23  2 59.537412 63.075897 -0.008781                         2          1   1
24  2 59.978492 63.973365 -0.008637                         2          1   1
25  2 60.419572 64.870833 -0.008494                         2          1   1
26  2 60.860652 65.768301 -0.008351                         2          1   1
27  2 61.301732 66.665769 -0.008208                         2          1   1
28  2 61.742812 67.563236 -0.008065                         2          1   1
29  2 62.183891 68.460704 -0.007922                         2          1   1
30  2 62.624971 69.358172 -0.007778                         2          1   1
31  2 63.066051 70.255640 -0.007635                         2          1   1
32  2 63.507131 71.153108 -0.007492                         2          1   1
33  2 63.948211 72.050576 -0.007349                         2          1   1
34  2 64.389290 72.948044 -0.007206                         2          1   1
35  2 64.830370 73.845512 -0.007063                         2          1   1
36  2 65.271450 74.742979 -0.006919                         2          1   1
37  2 65.712530 75.640447 -0.006776                         2          1   1
38  2 66.153610 76.537915 -0.006633                         2          1   1
39  2 66.594690 77.435383 -0.006490                         2          1   1
40  2 67.035769 78.332851 -0.006347                         2          1   1
41  2 67.476849 79.230319 -0.006204                         2          1   1
42  3 110.302165 83.979723 0.231277                         3          1   1
43  3 89.665712 56.899104 0.066352                          3          1   1
44  3 64.347616 41.181016 0.057807                          3          1   1
45  3 8.300016 4.298791 0.184779                            3          1   1
46  3 27.103905 111.086267 0.224145                         3          1   1
47  3 69.103970 93.680824 0.026671                          3          1   1
48  3 40.614811 16.555729 0.064371                          3          1   1
49  3 6.224430 98.140743 0.000052                           3          1   1
50  3 93.356746 20.307281 0.214464                          3          1   1
51  3 0.447268 43.209090 0.141319                           3          1   1
52  3 30.385184 28.224599 0.139189                          3          1   1
53  3 118.868819 113.056254 0.172483                        3          1   1
54  3 84.803325 42.127913 0.224967                          3          1   1
55  3 59.267779 114.960620 0.195263                         3          1   1
56  3 10.194291 115.038433 0.092702                         3          1   1
57  3 91.481829 34.633501 0.002396                          3          1   1
58  3 49.423057 29.588972 0.043875                          3          1   1
59  3 20.836901 104.206858 0.111952                         3          1   1
60  3 1.846294 27.814194 0.181298                           3          1   1
61  3 70.667296 113.497696 0.107731                         3          1   1
62  3 80.559772 15.737424 0.169427                          3          1   1
63  3 52.402572 51.151008 0.055646                          3          1   1
64  3 55.762630 84.494091 0.165684                          3          1   1
65  3 25.982842 41.816889 0.195442                          3          1   1
66  3 49.592413 55.528068 0.122243                          3          1   1
67  3 100.227888 112.340852 0.009327                        3          1   1
68  3 49.013118 71.575033 0.144922                          3          1   1
69  3 0.978472 18.996401 0.137207                           3          1   1
70  3 40.703022 8.949542 0.231155                           3          1   1
71  3 20.088113 98.950356 0.170644                          3          1   1
72  3 6.957448 55.082713 0.035421                           3          1   1
73  3 63.070429 101.655489 0.064131                         3          1   1
74  3 72.704830 92.877201 0.089952                          3          1   1
75  3 15.221842 102.000733 0.087546                         3          1   1
76  3 72.663461 105.052245 0.043804                         3          1   1
77  3 11.326350 73.454708 0.078431                          3          1   1
78  3 66.069063 79.645796 0.258256                          3          1   1
79  3 100.265027 116.800995 0.229396                        3          1   1
80  3 69.590189 58.397080 0.076904                         3          1   1
81  3 106.471856 55.016563 0.189066                        3          1   1
82  3 16.916673 22.489106 0.217337                         3          1   1
83  3 101.782249 54.791691 0.239865                        3          1   1
84  3 61.550762 106.144686 0.157490                        3          1   1
85  3 72.184768 20.731650 0.242963                         3          1   1
86  3 76.682574 16.194481 0.240947                         3          1   1
87  3 60.524255 24.500992 0.065007                         3          1   1
88  3 82.432842 76.993267 0.179708                         3          1   1
89  3 27.419031 16.978290 0.011054                         3          1   1
90  3 14.798206 58.670037 0.096473                         3          1   1
91  3 96.733761 56.990635 0.177494                         3          1   1
92  3 101.257486 74.559678 0.166686                        3          1   1
93  3 2.743845 66.471320 0.137393                          3          1   1
94  3 48.692288 95.892723 0.066441                         3          1   1
95  3 12.454359 0.650967 0.232026                          3          1   1
96  3 47.532240 12.980558 0.008187                         3          1   1
97  3 38.146184 90.597515 0.014529                         3          1   1
98  3 40.798708 67.286790 0.227984                         3          1   1
99  3 101.618516 5.651856 0.156720                         3          1   1
100  3 95.421468 45.082543 0.236407                         3          1   1
101  3 13.578044 43.727855 0.003761                         3          1   1
102  3 110.575340 40.688345 0.236399                        3          1   1
103  3 42.426743 117.436657 0.051723                        3          1   1
104  3 111.502891 57.264375 0.181759                        3          1   1
105  3 70.079750 77.881971 0.192714                         3          1   1
106  3 37.824133 98.047874 0.011147                         3          1   1
107  3 113.048094 60.490217 0.085028                        3          1   1
108  3 3.052406 79.809609 0.068122                          3          1   1
109  3 104.572456 68.510071 0.191444                        3          1   1
110  3 50.912446 101.056445 0.198395                        3          1   1
111  3 95.517788 13.275955 0.016938                         3          1   1
112  3 72.310525 94.601243 0.225524                         3          1   1
113  3 67.052987 8.865951 0.004947                          3          1   1
114  3 118.850294 28.982329 0.011932                        3          1   1
115  3 93.034853 29.349918 0.127424                         3          1   1
116  3 84.161315 65.787436 0.214694                         3          1   1
117  3 37.688367 87.413645 0.006605                         3          1   1
118  3 94.993584 99.242286 0.233002                         3          1   1
119  3 71.137907 99.615304 0.006767                         3          1   1
120  3 78.653902 12.411998 0.064095                         3          1   1
121  3 21.631870 112.267532 0.245763                        3          1   1
122  3 74.783364 79.410936 0.231851                         3          1   1
123  3 54.447054 32.798474 0.007403                         3          1   1
124  3 30.418625 84.733651 0.122036                         3          1   1
125  3 28.050491 115.051178 0.164467                        3          1   1
126  3 67.272513 43.822710 0.003172                         3          1   1
127  3 18.571314 33.490846 0.031228                         3          1   1
128  3 72.635900 68.583434 0.241672                         3          1   1
129  3 44.494704 88.170670 0.115449                         3          1   1
130  3 62.338842 87.261479 0.195344                         3          1   1
131  3 65.343571 46.402674 0.142941                         3          1   1
132  3 13.379799 114.410401 0.157910                        3          1   1
133  3 100.609226 101.196205 0.216208                       3          1   1
134  3 1.534605 1.528944 0.156123                           3          1   1
135  3 103.848925 71.778073 0.141491                        3          1   1
136  3 21.376091 97.931063 0.128764                         3          1   1
137  3 39.188518 16.766601 0.066008                         3          1   1
138  3 6.702304 44.420703 0.081599                          3          1   1
139  3 60.884075 75.857644 0.165453                         3          1   1
140  3 56.974382 5.941732 0.013840                          3          1   1
141  3 94.926732 54.685833 0.113324                         3          1   1
142  3 100.199770 113.677060 0.003168                       3          1   1
143  3 81.540190 85.196399 0.108525                         3          1   1
144  3 117.488672 103.603176 0.232637                       3          1   1
145  3 82.380651 39.605118 0.160787                         3          1   1
146  3 5.762260 109.559215 0.074476                         3          1   1
147  3 78.265889 65.234137 0.004399                         3          1   1
148  3 69.618155 94.808369 0.100018                         3          1   1
149  3 11.669773 49.466308 0.238193                         3          1   1
150  3 70.260456 8.007474 0.012050                          3          1   1
151  3 97.028692 97.965505 0.230064                         3          1   1
152  3 63.063009 45.757282 0.190071                         3          1   1
153  3 78.552063 83.859291 0.129741                         3          1   1
154  3 106.632150 64.495279 0.164563                        3          1   1
155  3 0.600472 9.282470 0.143779                           3          1   1
156  3 45.261711 116.586705 0.011593                        3          1   1
157  3 42.369439 68.499759 0.058983                         3          1   1
158  3 92.901634 60.267319 0.094061                         3          1   1
159  3 88.271233 11.969433 0.245623                         3          1   1
160  3 42.190930 47.769079 0.140425                         3          1   1
161  3 18.540031 115.446747 0.054567                        3          1   1
162  3 63.456797 65.065601 0.088932                         3          1   1
163  3 56.650535 85.422325 0.217081                         3          1   1
164  3 35.580785 28.842742 0.247363                         3          1   1
165  3 105.175844 52.915147 0.041762                        3          1   1
166  3 16.991973 38.725333 0.013933                         3          1   1
167  3 17.014556 41.291268 0.249767                         3          1   1
168  3 96.128564 50.588762 0.115829                         3          1   1
169  3 14.812039 27.172350 0.141181                         3          1   1
170  3 79.831642 14.537760 0.057099                         3          1   1
171  3 14.796859 99.977082 0.199218                         3          1   1
172  3 24.850151 50.545030 0.040514                         3          1   1
173  3 3.564905 98.326333 0.244257                          3          1   1
174  3 102.637838 91.039182 0.243623                        3          1   1
175  3 23.705351 63.925523 0.085121                         3          1   1
176  3 1.550749 84.873286 0.009961                          3          1   1
177  3 72.085900 50.811464 0.245653                         3          1   1
178  3 4.691825 97.045691 0.180270                          3          1   1
179  3 0.556163 26.432872 0.208703                          3          1   1
180  3 57.017235 90.287086 0.234420                         3          1   1
181  3 56.622247 20.293157 0.249358                         3          1   1
182  3 106.876343 101.397349 0.127897                       3          1   1
183  3 45.693416 37.422522 0.177949                         3          1   1
184  3 98.170788 44.954168 0.170030                         3          1   1
185  3 24.028612 30.012932 0.056805                         3          1   1
186  3 1.219321 33.117638 0.166700                          3          1   1
187  3 52.546144 108.141234 0.026747                        3          1   1
188  3 75.641066 22.323056 0.206393                         3          1   1
189  3 24.740381 114.245798 0.042314                        3          1   1
190  3 27.462294 71.585854 0.217365                         3          1   1
191  3 112.152544 12.523311 0.008446                        3          1   1
192  3 26.748168 14.837937 0.012164                         3          1   1
193  3 39.574487 49.901275 0.069998                         3          1   1
194  3 54.899562 8.285387 0.018692                          3          1   1
195  3 64.049109 118.976490 0.144358                        3          1   1
196  3 21.561492 115.023820 0.149926                        3          1   1
197  3 94.133021 16.264943 0.178042                         3          1   1
198  3 67.399760 2.510989 0.217321                          3          1   1
199  3 11.032104 106.208071 0.007024                        3          1   1
200  3 109.963423 0.397187 0.204101                         3          1   1
201  3 70.876083 19.493271 0.136763                         3          1   1
202  3 39.576109 40.063804 0.169031                         3          1   1
203  3 36.883101 104.307327 0.002304                        3          1   1
204  3 31.383947 75.458655 0.049307                         3          1   1
205  3 42.421640 57.062500 0.181659                         3          1   1
206  3 107.545661 96.456670 0.017194                        3          1   1
207  3 59.351426 14.274686 0.047445                         3          1   1
208  3 110.472670 72.688333 0.138377                        3          1   1
209  3 38.854128 76.046380 0.103219                         3          1   1
210  3 64.459840 63.080726 0.126768                         3          1   1
211  3 2.899862 59.023299 0.126928                          3          1   1
212  3 63.500831 27.666466 0.225898                         3          1   1
213  3 43.401934 107.939590 0.139692                        3          1   1
214  3 11.221214 108.790391 0.239362                        3          1   1
215  3 108.933101 107.862350 0.189552                       3          1   1
216  3 116.355545 93.132602 0.012501                        3          1   1
217  3 84.387470 7.437610 0.098086                          3          1   1
218  3 7.092666 79.986762 0.054504                          3          1   1
219  3 18.904507 39.954469 0.229841                         3          1   1
220  3 46.853792 8.712062 0.130091                          3          1   1
221  3 5.660585 5.501878 0.176939                           3          1   1
222  3 2.178712 7.131963 0.221915                           3          1   1
223  3 65.471839 117.366418 0.091781                        3          1   1
224  3 118.741969 53.966099 0.136657                        3          1   1
225  3 60.275663 102.112762 0.203183                        3          1   1
226  3 32.838291 10.688831 0.058722                         3          1   1
227  3 43.721269 52.037450 0.240452                         3          1   1
228  3 14.521414 61.698923 0.229551                         3          1   1
229  3 118.798821 12.691334 0.112134                        3          1   1
230  3 64.675832 92.045554 0.031161                         3          1   1
231  3 72.452240 32.118736 0.117201                         3          1   1
232  3 70.891323 4.645505 0.224250                          3          1   1
233  3 15.319302 89.107700 0.182485                         3          1   1
234  3 54.411765 35.132924 0.171777                         3          1   1
235  3 84.742064 71.526723 0.225458                         3          1   1
236  3 117.804447 1.093464 0.151284                         3          1   1
237  3 92.509658 89.911881 0.203316                         3          1   1
238  3 78.105643 70.909397 0.087702                         3          1   1
239  3 5.171164 10.623468 0.004986                          3          1   1
240  3 51.926154 14.795401 0.123011                         3          1   1
241  3 47.387864 73.493941 0.056428                         3          1   1
242  3 71.647507 109.150004 0.249943                        3          1   1
243  3 24.278509 36.090654 0.129737                         3          1   1
244  3 82.311999 101.567841 0.149770                        3          1   1
245  3 87.557775 28.788845 0.006836                         3          1   1
246  3 40.044316 79.884075 0.241073                         3          1   1
247  3 97.659769 70.216995 0.017394                         3          1   1
248  3 80.457095 78.609645 0.210325                         3          1   1
249  3 116.652914 70.831497 0.090208                        3          1   1
250  3 65.061652 48.104337 0.221797                         3          1   1
251  3 77.311375 17.138392 0.148043                         3          1   1
252  3 111.645311 74.898593 0.243887                        3          1   1
253  3 59.762161 68.949624 0.188707                         3          1   1
254  3 74.292504 91.282557 0.167950                         3          1   1
255  3 117.060008 87.374440 0.062544                        3          1   1
256  3 16.322947 20.674529 0.082201                         3          1   1
257  3 100.215115 49.846798 0.189938                        3          1   1
258  3 86.851792 59.439552 0.140726                         3          1   1
259  3 46.285951 73.472076 0.016758                         3          1   1
260  3 118.811776 62.861183 0.033218                        3          1   1
261  3 38.984050 32.223662 0.243392                         3          1   1
262  3 102.654245 104.121639 0.135536                       3          1   1
263  3 90.234429 82.653897 0.029058                         3          1   1
264  3 69.113742 57.276236 0.300325                         3          1   1
265  3 31.590703 64.597248 0.022918                         3          1   1
266  3 14.705986 15.304500 0.006448                         3          1   1
267  3 39.748127 84.171334 0.207410                         3          1   1
268  3 102.899818 83.659494 0.188093                        3          1   1
269  3 50.058293 85.766158 0.118645                         3          1   1
270  3 63.642143 67.312210 0.111620                         3          1   1
271  3 45.305491 80.085384 0.069126                         3          1   1
272  3 44.882289 25.256615 0.247636                         3          1   1
273  3 72.591492 112.323704 0.161586                        3          1   1
274  3 13.000658 91.787291 0.112604                         3          1   1
275  3 26.797078 5.591244 0.177856                          3          1   1
276  3 62.899615 89.097223 0.158395                         3          1   1
277  3 32.311170 51.460559 0.215735                         3          1   1
278  3 38.964696 28.529153 0.058567                         3          1   1
279  3 45.288213 54.960306 0.205436                         3          1   1
280  3 100.476377 17.043120 0.245891                        3          1   1
281  3 21.927483 75.198806 0.207368                         3          1   1
282  3 21.795214 64.207641 0.173460                         3          1   1
283  3 41.083221 7.293255 0.171942                          3          1   1
284  3 8.299717 44.533264 0.203025                          3          1   1
285  3 103.683335 64.707968 0.002512                        3          1   1
286  3 102.125679 73.343087 0.237554                        3          1   1
287  3 91.104746 24.029865 0.001697                         3          1   1
288  3 0.457743 0.029405 0.038339                           3          1   1
289  3 11.524524 0.056748 0.106661                          3          1   1
290  3 44.293253 21.704534 0.004955                         3          1   1
291  3 37.937445 30.509711 0.006683                         3          1   1
292  3 90.990473 46.404272 0.169431                         3          1   1
293  3 3.897492 115.480197 0.009767                         3          1   1
294  3 46.476326 108.343196 0.180595                        3          1   1
295  3 24.042720 14.890298 0.102167                         3          1   1
296  3 107.273339 21.582596 0.135167                        3          1   1
297  3 83.714169 5.870576 0.191854                          3          1   1
298  3 16.395973 12.203796 0.022491                         3          1   1
299  3 77.708974 93.042250 0.207184                         3          1   1
300  3 107.919869 117.263539 0.132811                       3          1   1
301  3 48.852328 22.667051 0.192540                         3          1   1
302  3 93.919462 96.475337 0.031161                         3          1   1
303  3 85.865047 73.853899 0.243462                         3          1   1
304  3 110.071735 77.755457 0.238298                        3          1   1
305  3 100.140757 36.755024 0.221986                        3          1   1
306  3 78.229855 38.557682 0.061233                         3          1   1
307  3 61.657218 46.290739 0.030741                         3          1   1
308  3 75.694533 110.701870 0.192668                        3          1   1
309  3 70.550662 30.336496 0.234077                         3          1   1
310  3 112.343874 1.890783 0.018717                         3          1   1
311  3 95.333068 107.628454 0.023573                        3          1   1
312  3 84.939446 108.844583 0.166869                        3          1   1
313  3 61.663978 4.287298 0.108944                          3          1   1
314  3 41.275019 97.395032 0.062171                         3          1   1
315  3 74.867681 40.588409 0.219341                         3          1   1
316  3 6.191972 114.645292 0.229977                         3          1   1
317  3 85.598517 67.615727 0.009574                         3          1   1
318  3 116.403695 104.392269 0.053796                       3          1   1
319  3 118.981585 114.710020 0.027633                       3          1   1
320  3 67.541158 81.413023 0.121856                         3          1   1
321  3 85.306050 31.084100 0.249452                         3          1   1
322  3 116.575426 4.397908 0.019020                         3          1   1
323  3 44.278546 4.949574 0.165288                          3          1   1
324  3 6.718405 99.388992 0.214416                          3          1   1
325  3 2.833554 104.404165 0.000062                         3          1   1
326  3 97.892720 72.423804 0.193006                         3          1   1
327  3 19.826542 27.966949 0.149133                         3          1   1
328  3 1.080494 59.292137 0.145284                          3          1   1
329  3 67.825372 77.508013 0.034425                         3          1   1
330  3 6.340596 71.082672 0.121390                          3          1   1
331  3 19.195590 94.254697 0.023732                         3          1   1
332  3 32.003396 58.628204 0.233453                         3          1   1
333  3 113.950364 46.938458 0.171935                        3          1   1
334  3 100.130320 42.896149 0.009205                        3          1   1
335  3 100.544870 1.384532 0.027044                         3          1   1
336  3 115.587766 46.830928 0.017823                        3          1   1
337  3 44.355948 20.371642 0.135765                         3          1   1
338  3 67.312372 32.248027 0.034841                         3          1   1
339  3 78.599346 49.971195 0.001498                         3          1   1
340  3 112.088439 9.555406 0.188841                         3          1   1
341  3 86.561160 27.704235 0.056934                         3          1   1
342  3 24.403024 99.997244 0.237129                         3          1   1
343  3 103.823380 109.576802 0.102968                       3          1   1
344  3 33.865329 73.183596 0.137972                         3          1   1
345  3 11.341542 33.178374 0.060915                         3          1   1
346  3 28.573571 100.039807 0.146858                        3          1   1
347  3 55.047549 14.280677 0.082895                         3          1   1
348  3 80.682414 36.128722 0.161021                         3          1   1
349  3 62.934716 49.619229 0.057997                         3          1   1
350  3 95.843435 89.302649 0.112869                         3          1   1
351  3 92.451669 5.801239 0.127757                          3          1   1
352  3 19.741896 49.191818 0.175331                         3          1   1
353  3 49.925788 103.513166 0.246510                        3          1   1
354  3 41.972669 24.186240 0.226477                         3          1   1
355  3 49.463644 31.596728 0.136416                         3          1   1
356  3 58.289091 57.744106 0.199437                         3          1   1
357  3 43.230671 82.792538 0.021709                         3          1   1
358  3 66.937879 95.803224 0.124005                         3          1   1
359  3 72.354339 56.266473 0.141580                         3          1   1
360  3 42.543938 110.862370 0.052650                        3          1   1
361  3 61.729706 11.813309 0.148473                         3          1   1
362  3 35.604241 100.798815 0.065034                        3          1   1
363  3 17.053046 83.035455 0.037170                         3          1   1
364  3 44.370570 53.477314 0.040386                         3          1   1
365  3 33.831542 90.351067 0.158387                         3          1   1
366  3 6.297474 85.580370 0.214242                          3          1   1
367  3 97.375488 64.049237 0.134850                         3          1   1
368  3 80.979998 116.893166 0.016744                        3          1   1
369  3 5.644801 78.885889 0.153244                          3          1   1
370  3 44.115236 91.374620 0.248952                         3          1   1
371  3 76.337327 1.594285 0.185295                          3          1   1
372  3 48.522287 50.597517 0.200376                         3          1   1
373  3 82.038438 35.589478 0.021435                         3          1   1
374  3 17.648461 102.707674 0.145388                        3          1   1
375  3 40.444463 48.992124 0.164779                         3          1   1
376  3 60.529079 27.206700 0.136329                         3          1   1
377  3 54.073621 30.015877 0.139202                         3          1   1
378  3 115.554569 115.661785 0.133302                       3          1   1
379  3 97.904863 91.578189 0.155198                         3          1   1
380  3 47.661020 110.864955 0.249510                        3          1   1
381  3 69.022493 21.586564 0.241269                         3          1   1
382  3 27.346666 57.569256 0.217653                         3          1   1
383  3 103.056031 108.745768 0.164293                       3          1   1
384  3 108.859494 20.678658 0.216486                        3          1   1
385  3 16.817982 10.940068 0.120210                         3          1   1
386  3 34.271287 23.298159 0.155081                         3          1   1
387  3 30.799465 92.868049 0.152878                         3          1   1