LAMMPS Description

1104  atoms
1104  ellipsoids




2  atom types



0 120 xlo xhi
0 120 ylo yhi
0 0.25 zlo zhi







Atoms

1                      1          1   1                    49.833657 43.331604 -0.011930       
2                      1          1   1                    58.655253 61.280961 -0.009067      
3                      1          1   1                    59.096333 62.178429 -0.008924      
4                      2          1   1                    59.537412 63.075897 -0.008781      
5                      2          1   1                    110.302165 83.979723 0.231277      
6                      2          1   1                    89.665712 56.899104 0.066352       
7                      2          1   1                    64.347616 41.181016 0.057807       
8                      2          1   1                    8.300016 4.298791 0.184779         
9                      2          1   1                    27.103905 111.086267 0.224145      
10                     2          1   1                    69.103970 93.680824 0.026671       
11                     2          1   1                    40.614811 16.555729 0.064371       
12                     2          1   1                    6.224430 98.140743 0.000052        
13                     2          1   1                    93.356746 20.307281 0.214464       
14                     2          1   1                    0.447268 43.209090 0.141319        
15                     2          1   1                    30.385184 28.224599 0.139189       
16                     2          1   1                    118.868819 113.056254 0.172483     
17                     2          1   1                    84.803325 42.127913 0.224967       
18                     2          1   1                    59.267779 114.960620 0.195263      
19                     2          1   1                    10.194291 115.038433 0.092702      
20                     2          1   1                    91.481829 34.633501 0.002396       
21                     2          1   1                    49.423057 29.588972 0.043875       
22                     2          1   1                    20.836901 104.206858 0.111952      
23                     2          1   1                    1.846294 27.814194 0.181298        
24                     2          1   1                    70.667296 113.497696 0.107731      
25                     2          1   1                    80.559772 15.737424 0.169427       
26                     2          1   1                    52.402572 51.151008 0.055646       
27                     2          1   1                    55.762630 84.494091 0.165684       
28                     2          1   1                    25.982842 41.816889 0.195442       
29                     2          1   1                    49.592413 55.528068 0.122243       
30                     2          1   1                    100.227888 112.340852 0.009327     
31                     2          1   1                    49.013118 71.575033 0.144922       
32                     2          1   1                    0.978472 18.996401 0.137207        
33                     2          1   1                    40.703022 8.949542 0.231155        
34                     2          1   1                    20.088113 98.950356 0.170644       
35                     2          1   1                    6.957448 55.082713 0.035421        
36                     2          1   1                    63.070429 101.655489 0.064131      
37                     2          1   1                    72.704830 92.877201 0.089952       
38                     2          1   1                    15.221842 102.000733 0.087546      
39                     2          1   1                    72.663461 105.052245 0.043804      
40                     2          1   1                    11.326350 73.454708 0.078431       
41                     2          1   1                    66.069063 79.645796 0.258256       
42                     2          1   1                    100.265027 116.800995 0.229396     
43                    2          1   1                     69.590189 58.397080 0.076904       
44                    2          1   1                     106.471856 55.016563 0.189066      
45                    2          1   1                     16.916673 22.489106 0.217337       
46                    2          1   1                     101.782249 54.791691 0.239865      
47                    2          1   1                     61.550762 106.144686 0.157490      
48                    2          1   1                     72.184768 20.731650 0.242963       
49                    2          1   1                     76.682574 16.194481 0.240947       
50                    2          1   1                     60.524255 24.500992 0.065007       
51                    2          1   1                     82.432842 76.993267 0.179708       
52                    2          1   1                     27.419031 16.978290 0.011054       
53                    2          1   1                     14.798206 58.670037 0.096473       
54                    2          1   1                     96.733761 56.990635 0.177494       
55                    2          1   1                     101.257486 74.559678 0.166686      
56                    2          1   1                     2.743845 66.471320 0.137393        
57                    2          1   1                     48.692288 95.892723 0.066441       
58                    2          1   1                     12.454359 0.650967 0.232026        
59                    2          1   1                     47.532240 12.980558 0.008187       
60                    2          1   1                     38.146184 90.597515 0.014529       
61                    2          1   1                     40.798708 67.286790 0.227984       
62                    2          1   1                     101.618516 5.651856 0.156720       
63                     2          1   1                     95.421468 45.082543 0.236407      
64                     2          1   1                     13.578044 43.727855 0.003761      
65                     2          1   1                     110.575340 40.688345 0.236399     
66                     2          1   1                     42.426743 117.436657 0.051723     
67                     2          1   1                     111.502891 57.264375 0.181759     
68                     2          1   1                     70.079750 77.881971 0.192714      
69                     2          1   1                     37.824133 98.047874 0.011147      
70                     2          1   1                     113.048094 60.490217 0.085028     
71                     2          1   1                     3.052406 79.809609 0.068122       
72                     2          1   1                     104.572456 68.510071 0.191444     
73                     2          1   1                     50.912446 101.056445 0.198395     
74                     2          1   1                     95.517788 13.275955 0.016938      
75                     2          1   1                     72.310525 94.601243 0.225524      
76                     2          1   1                     67.052987 8.865951 0.004947       
77                     2          1   1                     118.850294 28.982329 0.011932     
78                     2          1   1                     93.034853 29.349918 0.127424      
79                     2          1   1                     84.161315 65.787436 0.214694      
80                     2          1   1                     37.688367 87.413645 0.006605      
81                     2          1   1                     94.993584 99.242286 0.233002      
82                     2          1   1                     71.137907 99.615304 0.006767      
83                     2          1   1                     78.653902 12.411998 0.064095      
84                     2          1   1                     21.631870 112.267532 0.245763     
85                     2          1   1                     74.783364 79.410936 0.231851      
86                     2          1   1                     54.447054 32.798474 0.007403      
87                     2          1   1                     30.418625 84.733651 0.122036      
88                     2          1   1                     28.050491 115.051178 0.164467     
89                     2          1   1                     67.272513 43.822710 0.003172      
90                     2          1   1                     18.571314 33.490846 0.031228      
91                     2          1   1                     72.635900 68.583434 0.241672      
92                     2          1   1                     44.494704 88.170670 0.115449      
93                     2          1   1                     62.338842 87.261479 0.195344      
94                     2          1   1                     65.343571 46.402674 0.142941      
95                     2          1   1                     13.379799 114.410401 0.157910     
96                     2          1   1                     100.609226 101.196205 0.216208    
97                     2          1   1                     1.534605 1.528944 0.156123        
98                     2          1   1                     103.848925 71.778073 0.141491     
99                     2          1   1                     21.376091 97.931063 0.128764      
100                    2          1   1                     39.188518 16.766601 0.066008      
101                    2          1   1                     6.702304 44.420703 0.081599       
102                    2          1   1                     60.884075 75.857644 0.165453      
103                    2          1   1                     56.974382 5.941732 0.013840       
104                    2          1   1                     94.926732 54.685833 0.113324      
105                    2          1   1                     100.199770 113.677060 0.003168    
106                    2          1   1                     81.540190 85.196399 0.108525      
107                    2          1   1                     117.488672 103.603176 0.232637    
108                    2          1   1                     82.380651 39.605118 0.160787      
109                    2          1   1                     5.762260 109.559215 0.074476      
110                    2          1   1                     78.265889 65.234137 0.004399      
111                    2          1   1                     69.618155 94.808369 0.100018      
112                    2          1   1                     11.669773 49.466308 0.238193      
113                    2          1   1                     70.260456 8.007474 0.012050       
114                    2          1   1                     97.028692 97.965505 0.230064      
115                    2          1   1                     63.063009 45.757282 0.190071      
116                    2          1   1                     78.552063 83.859291 0.129741      
117                    2          1   1                     106.632150 64.495279 0.164563     
118                    2          1   1                     0.600472 9.282470 0.143779        
119                    2          1   1                     45.261711 116.586705 0.011593     
120                    2          1   1                     42.369439 68.499759 0.058983      
121                    2          1   1                     92.901634 60.267319 0.094061      
122                    2          1   1                     88.271233 11.969433 0.245623      
123                    2          1   1                     42.190930 47.769079 0.140425      
124                    2          1   1                     18.540031 115.446747 0.054567     
125                    2          1   1                     63.456797 65.065601 0.088932      
126                    2          1   1                     56.650535 85.422325 0.217081      
127                    2          1   1                     35.580785 28.842742 0.247363      
128                    2          1   1                     105.175844 52.915147 0.041762     
129                    2          1   1                     16.991973 38.725333 0.013933      
130                    2          1   1                     17.014556 41.291268 0.249767      
131                    2          1   1                     96.128564 50.588762 0.115829      
132                    2          1   1                     14.812039 27.172350 0.141181      
133                    2          1   1                     79.831642 14.537760 0.057099      
134                    2          1   1                     14.796859 99.977082 0.199218      
135                    2          1   1                     24.850151 50.545030 0.040514      
136                    2          1   1                     3.564905 98.326333 0.244257       
137                    2          1   1                     102.637838 91.039182 0.243623     
138                    2          1   1                     23.705351 63.925523 0.085121      
139                    2          1   1                     1.550749 84.873286 0.009961       
140                    2          1   1                     72.085900 50.811464 0.245653      
141                    2          1   1                     4.691825 97.045691 0.180270       
142                    2          1   1                     0.556163 26.432872 0.208703       
143                    2          1   1                     57.017235 90.287086 0.234420      
144                    2          1   1                     56.622247 20.293157 0.249358      
145                    2          1   1                     106.876343 101.397349 0.127897    
146                    2          1   1                     45.693416 37.422522 0.177949      
147                    2          1   1                     98.170788 44.954168 0.170030      
148                    2          1   1                     24.028612 30.012932 0.056805      
149                    2          1   1                     1.219321 33.117638 0.166700       
150                    2          1   1                     52.546144 108.141234 0.026747     
151                    2          1   1                     75.641066 22.323056 0.206393      
152                    2          1   1                     24.740381 114.245798 0.042314     
153                    2          1   1                     27.462294 71.585854 0.217365      
154                    2          1   1                     112.152544 12.523311 0.008446     
155                    2          1   1                     26.748168 14.837937 0.012164      
156                    2          1   1                     39.574487 49.901275 0.069998      
157                    2          1   1                     54.899562 8.285387 0.018692       
158                    2          1   1                     64.049109 118.976490 0.144358     
159                    2          1   1                     21.561492 115.023820 0.149926     
160                    2          1   1                     94.133021 16.264943 0.178042      
161                    2          1   1                     67.399760 2.510989 0.217321       
162                    2          1   1                     11.032104 106.208071 0.007024     
163                    2          1   1                     109.963423 0.397187 0.204101      
164                    2          1   1                     70.876083 19.493271 0.136763      
165                    2          1   1                     39.576109 40.063804 0.169031      
166                    2          1   1                     36.883101 104.307327 0.002304     
167                    2          1   1                     31.383947 75.458655 0.049307      
168                    2          1   1                     42.421640 57.062500 0.181659      
169                    2          1   1                     107.545661 96.456670 0.017194     
170                    2          1   1                     59.351426 14.274686 0.047445      
171                    2          1   1                     110.472670 72.688333 0.138377     
172                    2          1   1                     38.854128 76.046380 0.103219      
173                    2          1   1                     64.459840 63.080726 0.126768      
174                    2          1   1                     2.899862 59.023299 0.126928       
175                    2          1   1                     63.500831 27.666466 0.225898      
176                    2          1   1                     43.401934 107.939590 0.139692     
177                    2          1   1                     11.221214 108.790391 0.239362     
178                    2          1   1                     108.933101 107.862350 0.189552    
179                    2          1   1                     116.355545 93.132602 0.012501     
180                    2          1   1                     84.387470 7.437610 0.098086       
181                    2          1   1                     7.092666 79.986762 0.054504       
182                    2          1   1                     18.904507 39.954469 0.229841      
183                    2          1   1                     46.853792 8.712062 0.130091       
184                    2          1   1                     5.660585 5.501878 0.176939        
185                    2          1   1                     2.178712 7.131963 0.221915        
186                    2          1   1                     65.471839 117.366418 0.091781     
187                    2          1   1                     118.741969 53.966099 0.136657     
188                    2          1   1                     60.275663 102.112762 0.203183     
189                    2          1   1                     32.838291 10.688831 0.058722      
190                    2          1   1                     43.721269 52.037450 0.240452      
191                    2          1   1                     14.521414 61.698923 0.229551      
192                    2          1   1                     118.798821 12.691334 0.112134     
193                    2          1   1                     64.675832 92.045554 0.031161      
194                    2          1   1                     72.452240 32.118736 0.117201      
195                    2          1   1                     70.891323 4.645505 0.224250       
196                    2          1   1                     15.319302 89.107700 0.182485      
197                    2          1   1                     54.411765 35.132924 0.171777      
198                    2          1   1                     84.742064 71.526723 0.225458      
199                    2          1   1                     117.804447 1.093464 0.151284      
200                    2          1   1                     92.509658 89.911881 0.203316      
201                    2          1   1                     78.105643 70.909397 0.087702      
202                    2          1   1                     5.171164 10.623468 0.004986       
203                    2          1   1                     51.926154 14.795401 0.123011      
204                    2          1   1                     47.387864 73.493941 0.056428      
205                    2          1   1                     71.647507 109.150004 0.249943     
206                    2          1   1                     24.278509 36.090654 0.129737      
207                    2          1   1                     82.311999 101.567841 0.149770     
208                    2          1   1                     87.557775 28.788845 0.006836      
209                    2          1   1                     40.044316 79.884075 0.241073      
210                    2          1   1                     97.659769 70.216995 0.017394      
211                    2          1   1                     80.457095 78.609645 0.210325      
212                    2          1   1                     116.652914 70.831497 0.090208     
213                    2          1   1                     65.061652 48.104337 0.221797      
214                    2          1   1                     77.311375 17.138392 0.148043      
215                    2          1   1                     111.645311 74.898593 0.243887     
216                    2          1   1                     59.762161 68.949624 0.188707      
217                    2          1   1                     74.292504 91.282557 0.167950      
218                    2          1   1                     117.060008 87.374440 0.062544     
219                    2          1   1                     16.322947 20.674529 0.082201      
220                    2          1   1                     100.215115 49.846798 0.189938     
221                    2          1   1                     86.851792 59.439552 0.140726      
222                    2          1   1                     46.285951 73.472076 0.016758      
223                    2          1   1                     118.811776 62.861183 0.033218     
224                    2          1   1                     38.984050 32.223662 0.243392      
225                    2          1   1                     102.654245 104.121639 0.135536    
226                    2          1   1                     90.234429 82.653897 0.029058      
227                    2          1   1                     69.113742 57.276236 0.300325      
228                    2          1   1                     31.590703 64.597248 0.022918      
229                    2          1   1                     14.705986 15.304500 0.006448      
230                    2          1   1                     39.748127 84.171334 0.207410      
231                    2          1   1                     102.899818 83.659494 0.188093     
232                    2          1   1                     50.058293 85.766158 0.118645      
233                    2          1   1                     63.642143 67.312210 0.111620      
234                    2          1   1                     45.305491 80.085384 0.069126      
235                    2          1   1                     44.882289 25.256615 0.247636      
236                    2          1   1                     72.591492 112.323704 0.161586     
237                    2          1   1                     13.000658 91.787291 0.112604      
238                    2          1   1                     26.797078 5.591244 0.177856       
239                    2          1   1                     62.899615 89.097223 0.158395      
240                    2          1   1                     32.311170 51.460559 0.215735      
241                    2          1   1                     38.964696 28.529153 0.058567      
242                    2          1   1                     45.288213 54.960306 0.205436      
243                    2          1   1                     100.476377 17.043120 0.245891     
244                    2          1   1                     21.927483 75.198806 0.207368      
245                    2          1   1                     21.795214 64.207641 0.173460      
246                    2          1   1                     41.083221 7.293255 0.171942       
247                    2          1   1                     8.299717 44.533264 0.203025       
248                    2          1   1                     103.683335 64.707968 0.002512     
249                    2          1   1                     102.125679 73.343087 0.237554     
250                    2          1   1                     91.104746 24.029865 0.001697      
251                    2          1   1                     0.457743 0.029405 0.038339        
252                    2          1   1                     11.524524 0.056748 0.106661       
253                    2          1   1                     44.293253 21.704534 0.004955      
254                    2          1   1                     37.937445 30.509711 0.006683      
255                    2          1   1                     90.990473 46.404272 0.169431      
256                    2          1   1                     3.897492 115.480197 0.009767      
257                    2          1   1                     46.476326 108.343196 0.180595     
258                    2          1   1                     24.042720 14.890298 0.102167      
259                    2          1   1                     107.273339 21.582596 0.135167     
260                    2          1   1                     83.714169 5.870576 0.191854       
261                    2          1   1                     16.395973 12.203796 0.022491      
262                    2          1   1                     77.708974 93.042250 0.207184      
263                    2          1   1                     107.919869 117.263539 0.132811    
264                    2          1   1                     48.852328 22.667051 0.192540      
265                    2          1   1                     93.919462 96.475337 0.031161      
266                    2          1   1                     85.865047 73.853899 0.243462      
267                    2          1   1                     110.071735 77.755457 0.238298     
268                    2          1   1                     100.140757 36.755024 0.221986     
269                    2          1   1                     78.229855 38.557682 0.061233      
270                    2          1   1                     61.657218 46.290739 0.030741      
271                    2          1   1                     75.694533 110.701870 0.192668     
272                    2          1   1                     70.550662 30.336496 0.234077      
273                    2          1   1                     112.343874 1.890783 0.018717      
274                    2          1   1                     95.333068 107.628454 0.023573     
275                    2          1   1                     84.939446 108.844583 0.166869     
276                    2          1   1                     61.663978 4.287298 0.108944       
277                    2          1   1                     41.275019 97.395032 0.062171      
278                    2          1   1                     74.867681 40.588409 0.219341      
279                    2          1   1                     6.191972 114.645292 0.229977      
280                    2          1   1                     85.598517 67.615727 0.009574      
281                    2          1   1                     116.403695 104.392269 0.053796    
282                    2          1   1                     118.981585 114.710020 0.027633    
283                    2          1   1                     67.541158 81.413023 0.121856      
284                    2          1   1                     85.306050 31.084100 0.249452      
285                    2          1   1                     116.575426 4.397908 0.019020      
286                    2          1   1                     44.278546 4.949574 0.165288       
287                    2          1   1                     6.718405 99.388992 0.214416       
288                    2          1   1                     2.833554 104.404165 0.000062      
289                    2          1   1                     97.892720 72.423804 0.193006      
290                    2          1   1                     19.826542 27.966949 0.149133      
291                    2          1   1                     1.080494 59.292137 0.145284       
292                    2          1   1                     67.825372 77.508013 0.034425      
293                    2          1   1                     6.340596 71.082672 0.121390       
294                    2          1   1                     19.195590 94.254697 0.023732      
295                    2          1   1                     32.003396 58.628204 0.233453      
296                    2          1   1                     113.950364 46.938458 0.171935     
297                    2          1   1                     100.130320 42.896149 0.009205     
298                    2          1   1                     100.544870 1.384532 0.027044      
299                    2          1   1                     115.587766 46.830928 0.017823     
300                    2          1   1                     44.355948 20.371642 0.135765      
301                    2          1   1                     67.312372 32.248027 0.034841      
302                    2          1   1                     78.599346 49.971195 0.001498      
303                    2          1   1                     112.088439 9.555406 0.188841      
304                    2          1   1                     86.561160 27.704235 0.056934      
305                    2          1   1                     24.403024 99.997244 0.237129      
306                    2          1   1                     103.823380 109.576802 0.102968    
307                    2          1   1                     33.865329 73.183596 0.137972      
308                    2          1   1                     11.341542 33.178374 0.060915      
309                    2          1   1                     28.573571 100.039807 0.146858     
310                    2          1   1                     55.047549 14.280677 0.082895      
311                    2          1   1                     80.682414 36.128722 0.161021      
312                    2          1   1                     62.934716 49.619229 0.057997      
313                    2          1   1                     95.843435 89.302649 0.112869      
314                    2          1   1                     92.451669 5.801239 0.127757       